LAMMPS (16 Mar 2018)
Running on 48 partitions of processors
Step MaxReplicaForce MaxAtomForce GradV0 GradV1 GradVc EBF EBR RDT RD1 PE1 RD2 PE2 ... RDN PEN
0 3.018007e+09 1.7823711e+09 9.5710067e-10    477.20482 5.2925455e+08 2.0345844e+08 2.0345824e+08    1340.6603            0   -53582.606  0.021276596   -48197.379  0.042553191    99237.215  0.063829787     14804731  0.085106383    3179596.8   0.10638298    330045.36   0.12765957    3748431.3   0.14893617    1988433.1   0.17021277    2124663.3   0.19148936    1296571.9   0.21276596    960222.86   0.23404255     14540085   0.25531915    1496285.8   0.27659574    1027999.5   0.29787234    952440.09   0.31914894    1596764.8   0.34042553    2416728.2   0.36170213    1934543.7   0.38297872    1635792.6   0.40425532    3242056.9   0.42553191    4891138.2   0.44680851     10227384   0.46808511     36479628    0.4893617 2.0139485e+08    0.5106383 2.0340485e+08   0.53191489     44050587   0.55319149      9918713   0.57446809    4757982.1   0.59574468    2473173.5   0.61702128     10893873   0.63829787    1826863.9   0.65957447    1626006.2   0.68085106    1260020.4   0.70212766    1213077.6   0.72340426    1831958.3   0.74468085    1690604.1   0.76595745      2371919   0.78723404    2496160.7   0.80851064    1502499.9   0.82978723    749227.22   0.85106383    1612953.1   0.87234043    4583829.9   0.89361702    534044.17   0.91489362    1447122.2   0.93617021     14807040   0.95744681    96116.571    0.9787234   -48052.168            1   -53390.565 
50    7400.1969    323.46204 9.376505e-10    124.39454    15006.452    187408.77    187298.65    1553.3278            0   -53582.606  0.018219501   -49292.929  0.036908651   -40872.032  0.061001553   -28820.209  0.082230611   -25768.563   0.10170738    -13468.54   0.12488367   -3909.8987    0.1457165    1857.6426   0.16663378    10676.979    0.1885039    20865.139   0.20926886    27407.114   0.23016947    36050.808   0.25127944    45220.712   0.27205286    52140.415   0.29285312    57803.127   0.31417954    65342.419   0.33527725    70543.459   0.35620448      75176.7   0.37720445    80505.872     0.398053    84134.964   0.41906686    87565.054   0.44064824    90867.406   0.46280415    93893.958     0.489668    133793.69   0.51087339    133826.16   0.53776281     94646.43   0.56009447    91796.336   0.58135608    89680.904   0.60238333    86071.296   0.62342654    81315.584   0.64441157    76923.346   0.66532913    72278.307   0.68648082    65921.779    0.7075746    58691.975   0.72834659    51630.476   0.74930955    45297.585   0.77053625    36820.489   0.79143733     28133.55   0.81209309    19957.176   0.83391299    10694.963   0.85467253    1802.3071   0.87541746   -5140.4809   0.89855422   -13748.009   0.91796555   -25611.579   0.93912354   -28756.531   0.96311311   -40979.523   0.98177716   -49242.798            1   -53472.483 
100    1390.3174    54.385685 7.1342845e-10    42.949379    1714.7896    74326.609    74270.112    1800.0543            0   -53582.606   0.01523387   -52125.126  0.032340624   -47657.174  0.055875827   -41209.329  0.075670762   -40299.359  0.092952202   -35952.991   0.11570392   -30062.509   0.13620606   -28225.663    0.1557044   -24450.195    0.1774611   -19687.222    0.1981334   -16770.647   0.21889633   -12849.315   0.24036096   -8860.6859   0.26166511   -5827.9369    0.2828996   -2767.8266   0.30504672    864.38517   0.32703661    3586.8095    0.3488934    6140.1695   0.37110473    8991.3946   0.39306802    11276.638   0.41532389    12888.329   0.43829888    14423.832   0.46191995    16264.226   0.49061187    20744.002    0.5092539    20699.006   0.53806046     16532.27   0.56197976    15067.601   0.58458109    13501.085   0.60701591    11605.901   0.62939413    9272.9409    0.6515698    7300.0227   0.67343101     4607.884   0.69567205    1845.3649   0.71755723   -1914.3855   0.73880894   -5534.6787   0.76023871   -8721.4299   0.78191631   -12532.015   0.80277463   -16486.715   0.82326864   -19614.883   0.84485084   -23926.151    0.8642283    -28093.72   0.88450433   -30675.011   0.90724137   -35809.305   0.92455529   -40235.582   0.94428529   -41146.465   0.96769556   -47685.839   0.98475414   -52079.732            1    -53526.11 
150    601.21818    26.854339 4.3000413e-10     16.29727     704.0328    45919.075    45887.762    2111.3105            0   -53582.606  0.013017102   -52828.814  0.028728664   -49880.419  0.050948906   -45926.794  0.069780831   -45919.183  0.086128028     -42886.7   0.10797384    -39064.35    0.1283388   -38310.197   0.14731388   -35663.536   0.16870397   -32525.368   0.18957094   -30867.735   0.21046455   -28160.276   0.23217683   -25227.432   0.25404589   -23431.682   0.27584544   -21171.279   0.29855224   -18585.709   0.32125843    -16836.32   0.34394385   -14648.581   0.36708862   -12669.417   0.39022106   -11183.375   0.41377623   -10451.054   0.43786066    -9291.326   0.46253729   -8108.9411   0.49120234   -7663.5316    0.5079402   -7663.6539   0.53675356    -7846.903   0.56174899   -8993.2103   0.58561964   -10260.852   0.60938232   -11320.616   0.63286638   -12927.787   0.65611566   -14269.549   0.67898986   -15916.366   0.70200791   -17972.987   0.72465423    -20468.15   0.74646345   -22990.417   0.76834798   -25358.302   0.79027065   -27769.655   0.81134316   -30342.323   0.83197548   -32384.169   0.85323245   -35152.917   0.87219072   -38164.732   0.89229634   -39494.099   0.91415345   -42671.647   0.93059822   -45753.531   0.94936522   -45787.128   0.97135243   -49881.647   0.98696677   -52799.108            1   -53551.294 
200    369.58022    19.068219 3.1782738e-10    6.0811776    429.24306    32287.431    32263.078     2427.162            0   -53582.606  0.011637814   -53053.313  0.026407914   -50627.533  0.047225631   -48235.451  0.065395237   -48325.519  0.081757008   -45895.549   0.10282357   -43548.825   0.12301195   -42945.691   0.14197409   -40666.799   0.16309206   -38696.218   0.18412493   -37484.956   0.20514464   -35215.079   0.22696983   -32946.009   0.24912638   -31744.431   0.27125411   -29997.547   0.29412836   -28004.395   0.31721188   -26762.253   0.34037806   -24974.793   0.36404937   -23917.478   0.38786247   -22915.096   0.41201378   -22362.642   0.43660712   -21596.223    0.4619766   -21295.176   0.48763365   -21299.776   0.50833885   -22152.174   0.53768284   -21943.287   0.56276334   -21783.095   0.58744603   -22349.815   0.61185426   -22937.914   0.63587127   -23897.474   0.65949621   -24917.003   0.68281776   -26157.573   0.70606568   -27754.565   0.72913588   -29299.252   0.75131445   -31301.387   0.77342422   -33281.227   0.79542097    -34994.23   0.81664756   -36950.205   0.83754034   -38488.515   0.85854563   -40445.618   0.87771179   -42754.257   0.89763484    -43670.09   0.91858919   -45656.001   0.93508978   -48117.486   0.95315367   -48121.674   0.97370469   -50641.035   0.98835293   -53033.045            1   -53558.254 
250    281.09275    13.464148 2.7260721e-10    2.7186742    322.85707    23620.282    23597.603    2693.6374            0   -53582.606  0.011071968   -53165.946  0.025295224   -50885.406  0.044603468   -49396.499  0.062188114   -49380.565  0.078868518   -47346.928  0.099101666   -45904.681     0.119061    -45354.77   0.13816455   -43498.405    0.1589789   -42187.242   0.17994412   -41180.947   0.20090372   -39236.515   0.22291439   -37957.398   0.24505362   -36823.753   0.26719506   -35436.989   0.29017374    -34237.04   0.31336166   -33156.891   0.33682149   -31912.007   0.36079599   -31412.959   0.38496742   -30719.881   0.40941265   -30342.626   0.43436085   -29974.333    0.4600731   -30198.986   0.48360629   -29962.325   0.50662545   -31291.143   0.53826038    -30794.23   0.56306971   -30712.549   0.58913994   -31096.149   0.61444686   -30867.555   0.63895413   -31271.685   0.66278283   -31981.783   0.68637992   -32937.282   0.70982969   -33998.092   0.73303418   -35024.491   0.75544197     -36326.5   0.77750732   -37927.018   0.79943545   -39221.355   0.82061777   -40683.736   0.84147963   -41906.069   0.86216869   -43372.795   0.88154585    -45220.64   0.90120235    -45947.29   0.92130327   -47193.239   0.93817077   -49245.575   0.95569264   -49360.718   0.97483554   -50903.439   0.98893197   -53149.745            1   -53559.928 
300    191.68709    10.998192 2.4464983e-10    1.5279851    224.87911     17263.39    17241.263    2932.5805            0   -53582.606   0.01091228    -53213.07  0.024768934   -50971.535  0.042600307   -50045.799  0.059569366    -49936.03  0.076385463   -48182.645  0.095746015   -47268.123    0.1151905   -46725.541   0.13426469   -45268.206   0.15458093   -44324.726   0.17517872   -43500.215   0.19591963    -41982.23   0.21765766   -41103.592   0.23955908   -40254.405    0.2615814     -39293.6     0.284359   -38557.473   0.30738202   -37668.431   0.33087958   -37042.813   0.35504519   -36747.454   0.37999984   -36884.262    0.4057129   -36661.499   0.43151093   -36433.589   0.45905616   -36563.415   0.48273484   -36319.216   0.50819172   -37308.371   0.54065345   -36786.346   0.56635723   -36876.979   0.59277141   -36735.752   0.61916902    -36925.82   0.64421092   -36812.758   0.66850327   -37027.304   0.69210179   -37561.094   0.71547737   -38296.344   0.73845547   -39019.197   0.76077379   -39856.131   0.78265216   -41083.858   0.80430467   -41996.382   0.82519913    -43106.94    0.8457268   -44161.752    0.8660175   -45150.146   0.88524918   -46674.693   0.90447208   -47278.609   0.92371822   -48086.378   0.94072517   -49847.846   0.95769248   -50029.366   0.97538877    -50994.34   0.98910887   -53199.327            1    -53560.48 
Climbing replica = 24
Step MaxReplicaForce MaxAtomForce GradV0 GradV1 GradVc EBF EBR RDT RD1 PE1 RD2 PE2 ... RDN PEN
300    224.87911    10.998192 2.4464983e-10    1.5279851    224.87911     17263.39    17241.263    2932.5805            0   -53582.606   0.01091228    -53213.07  0.024768934   -50971.535  0.042600307   -50045.799  0.059569366    -49936.03  0.076385463   -48182.645  0.095746015   -47268.123    0.1151905   -46725.541   0.13426469   -45268.206   0.15458093   -44324.726   0.17517872   -43500.215   0.19591963    -41982.23   0.21765766   -41103.592   0.23955908   -40254.405    0.2615814     -39293.6     0.284359   -38557.473   0.30738202   -37668.431   0.33087958   -37042.813   0.35504519   -36747.454   0.37999984   -36884.262    0.4057129   -36661.499   0.43151093   -36433.589   0.45905616   -36563.415   0.48273484   -36319.216   0.50819172   -37308.371   0.54065345   -36786.346   0.56635723   -36876.979   0.59277141   -36735.752   0.61916902    -36925.82   0.64421092   -36812.758   0.66850327   -37027.304   0.69210179   -37561.094   0.71547737   -38296.344   0.73845547   -39019.197   0.76077379   -39856.131   0.78265216   -41083.858   0.80430467   -41996.382   0.82519913    -43106.94    0.8457268   -44161.752    0.8660175   -45150.146   0.88524918   -46674.693   0.90447208   -47278.609   0.92371822   -48086.378   0.94072517   -49847.846   0.95769248   -50029.366   0.97538877    -50994.34   0.98910887   -53199.327            1    -53560.48 
350    224.90991    10.998224 2.4464982e-10    1.5279513    224.90991    17263.271    17241.144    2932.5899            0   -53582.606  0.010912281   -53213.071  0.024768924   -50971.537   0.04260024   -50045.822  0.059569275   -49936.048  0.076385377   -48182.675  0.095745894   -47268.169   0.11519036   -46725.588   0.13426454   -45268.273   0.15458077   -44324.802   0.17517853   -43500.298   0.19591944   -41982.336   0.21765745   -41103.706   0.23955887   -40254.535   0.26158118   -39293.745   0.28435878   -38557.632   0.30738179   -37668.603   0.33087935   -37043.004   0.35504502   -36747.694   0.37999974   -36884.492   0.40571282   -36661.699   0.43151088   -36433.817   0.45905617   -36563.652    0.4827346   -36319.336   0.50819165   -37308.591   0.54065341   -36786.569   0.56635726   -36877.207   0.59277147   -36735.973   0.61916913   -36926.041   0.64421108   -36812.999   0.66850348    -37027.49     0.692102   -37561.268   0.71547758   -38296.506   0.73845568   -39019.348   0.76077399   -39856.267   0.78265236   -41083.975   0.80430485   -41996.486    0.8251993   -43107.029   0.84572695   -44161.834   0.86601765   -45150.212   0.88524932   -46674.744    0.9044722   -47278.656    0.9237183   -48086.409   0.94072526   -49847.866   0.95769254   -50029.389   0.97538878   -50994.343   0.98910887   -53199.328            1    -53560.48 
400    225.00371     10.99832 2.4464978e-10    1.5278484    225.00371    17262.909    17240.783    2932.6187            0   -53582.606  0.010912283   -53213.074  0.024768896   -50971.543  0.042600036   -50045.892  0.059568999   -49936.106  0.076385116   -48182.765  0.095745525   -47268.307   0.11518993   -46725.732   0.13426411   -45268.474   0.15458026   -44325.033   0.17517798   -43500.552   0.19591887   -41982.659   0.21765683   -41104.055   0.23955822    -40254.93   0.26158053   -39294.184   0.28435809   -38558.114   0.30738109   -37669.124   0.33087866   -37043.584   0.35504452   -36748.424   0.37999944   -36885.191   0.40571256   -36662.307   0.43151072   -36434.508   0.45905618   -36564.372   0.48273388   -36319.697   0.50819144   -37309.263    0.5406533   -36787.247   0.56635736   -36877.901   0.59277168   -36736.642   0.61916945   -36926.712   0.64421158   -36813.731   0.66850413   -37028.056   0.69210265   -37561.799   0.71547823   -38296.997    0.7384563   -39019.809   0.76077459   -39856.679   0.78265294   -41084.329    0.8043054   -41996.803   0.82519982   -43107.301   0.84572743   -44162.085   0.86601808    -45150.41   0.88524973   -46674.899   0.90447256   -47278.797   0.92371856   -48086.505   0.94072554   -49847.929   0.95769275    -50029.46   0.97538881    -50994.35   0.98910887   -53199.332            1    -53560.48 
450    225.16092    10.998481 2.4464954e-10    1.5276764    225.16092    17262.307    17240.181    2932.6669            0   -53582.606  0.010912287   -53213.079  0.024768848   -50971.553  0.042599695   -50046.009  0.059568538   -49936.201  0.076384679   -48182.916   0.09574491   -47268.539    0.1151892   -46725.972   0.13426338   -45268.811   0.15457942    -44325.42   0.17517705   -43500.975   0.19591791   -41983.199   0.21765579   -41104.637   0.23955714   -40255.591   0.26157944   -39294.919   0.28435695    -38558.92   0.30737993   -37669.996    0.3308775   -37044.553   0.35504368   -36749.644   0.37999894   -36886.358   0.40571212   -36663.324   0.43151047   -36435.662   0.45905621   -36565.574   0.48273266   -36320.299   0.50819109   -37310.385   0.54065311    -36788.38   0.56635753    -36879.06   0.59277202   -36737.761   0.61916999   -36927.833   0.64421242   -36814.954   0.66850521   -37029.002   0.69210373   -37562.685    0.7154793   -38297.818   0.73845733   -39020.579    0.7607756   -39857.369   0.78265392    -41084.92   0.80430632   -41997.332   0.82520068   -43107.755   0.84572822   -44162.504   0.86601881   -45150.742   0.88525042   -46675.158   0.90447317   -47279.034     0.923719   -48086.664   0.94072599   -49848.033    0.9576931   -50029.577   0.97538886   -50994.362   0.98910887   -53199.337            1    -53560.48 
500    225.38223    10.998708 2.4464925e-10    1.5274355    225.38223    17261.467     17239.34    2932.7343            0   -53582.606  0.010912293   -53213.086  0.024768782   -50971.567  0.042599217   -50046.172  0.059567892   -49936.335  0.076384067   -48183.127  0.095744048   -47268.863   0.11518818   -46726.309   0.13426235   -45269.282   0.15457825   -44325.961   0.17517575   -43501.569   0.19591656   -41983.955   0.21765433   -41105.453   0.23955563   -40256.518   0.26157792   -39295.949   0.28435535   -38560.049   0.30737831   -37671.218   0.33087588   -37045.912   0.35504251   -36751.354   0.37999824   -36887.994    0.4057115   -36664.749    0.4315101   -36437.281   0.45905625   -36567.259   0.48273096    -36321.14    0.5081906   -37311.957   0.54065284   -36789.967   0.56635777   -36880.685    0.5927725   -36739.329   0.61917075   -36929.403   0.64421358   -36816.667   0.66850673   -37030.327   0.69210525   -37563.927    0.7154808   -38298.969   0.73845878   -39021.658   0.76077702   -39858.335    0.7826553   -41085.749   0.80430761   -41998.073   0.82520189   -43108.391   0.84572934   -44163.092   0.86601982   -45151.207   0.88525138   -46675.521   0.90447401   -47279.365   0.92371961   -48086.888   0.94072663   -49848.179   0.95769359   -50029.743   0.97538894   -50994.379   0.98910887   -53199.345            1    -53560.48 
550    225.66863    10.999002 2.446489e-10    1.5271256    225.66863    17260.392    17238.266     2932.821            0   -53582.606    0.0109123   -53213.095  0.024768696   -50971.586  0.042598603   -50046.382  0.059567061   -49936.507   0.07638328   -48183.399  0.095742941    -47269.28   0.11518686   -46726.742   0.13426104   -45269.889   0.15457674   -44326.658   0.17517407   -43502.332   0.19591483   -41984.927   0.21765245   -41106.502   0.23955369   -40257.709   0.26157596   -39297.273   0.28435329   -38561.501   0.30737622    -37672.79    0.3308738   -37047.659     0.355041   -36753.554   0.37999734   -36890.098   0.40571071   -36666.582   0.43150964   -36439.363   0.45905631   -36569.426   0.48272875   -36322.214   0.50818996    -37313.98    0.5406525   -36792.009   0.56635807   -36882.775   0.59277311   -36741.345   0.61917172   -36931.423   0.64421508   -36818.872   0.66850868   -37032.032    0.6921072   -37565.525   0.71548274   -38300.449   0.73846064   -39023.046   0.76077883   -39859.577   0.78265706   -41086.816   0.80430927   -41999.027   0.82520345   -43109.209   0.84573077   -44163.848   0.86602113   -45151.806   0.88525262   -46675.988    0.9044751   -47279.791    0.9237204   -48087.176   0.94072745   -49848.366   0.95769421   -50029.955   0.97538904   -50994.401   0.98910887   -53199.355            1    -53560.48 
600     226.0213    10.999364 2.4464735e-10    1.5267469     226.0213    17259.089    17236.963     2932.927            0   -53582.606  0.010912309   -53213.105  0.024768592   -50971.608  0.042597852   -50046.639  0.059566046   -49936.717  0.076382319   -48183.731  0.095741587    -47269.79   0.11518526   -46727.272   0.13425943   -45270.631   0.15457489   -44327.509   0.17517203   -43503.265   0.19591271   -41986.116   0.21765016   -41107.785   0.23955132   -40259.166   0.26157356   -39298.893   0.28435077   -38563.277   0.30737367   -37674.711   0.33087126   -37049.796   0.35503916   -36756.242   0.37999624    -36892.67   0.40570975   -36668.822   0.43150908   -36441.909   0.45905637   -36572.073   0.48272605   -36323.518   0.50818918   -37316.453   0.54065207   -36794.506   0.56635843    -36885.33   0.59277386   -36743.811    0.6191729   -36933.892   0.64421691   -36821.567   0.66851106   -37034.115   0.69210958   -37567.478    0.7154851   -38302.258   0.73846291   -39024.742   0.76078105   -39861.096   0.78265922    -41088.12   0.80431129   -42000.193   0.82520534   -43110.209   0.84573252   -44164.772   0.86602272   -45152.537   0.88525413   -46676.559   0.90447643   -47280.312   0.92372136   -48087.528   0.94072846   -49848.596   0.95769497   -50030.215   0.97538916   -50994.427   0.98910887   -53199.367            1   -53560.481 
650    226.44171    10.999794 2.4464688e-10    1.5262994    226.44171    17257.562    17235.436    2933.0522            0   -53582.606  0.010912321   -53213.118  0.024768469   -50971.635  0.042596966   -50046.943  0.059564848   -49936.966  0.076381184   -48184.124  0.095739989   -47270.393   0.11518337   -46727.897   0.13425753   -45271.507   0.15457271   -44328.515   0.17516962   -43504.368   0.19591022   -41987.522   0.21764746   -41109.302   0.23954852   -40260.887   0.26157074   -39300.806    0.2843478   -38565.375   0.30737067   -37676.982   0.33086826    -37052.32   0.35503698    -36759.42   0.37999494   -36895.707   0.40570861   -36671.469   0.43150841   -36444.918   0.45905645     -36575.2   0.48272283   -36325.044   0.50818825   -37319.375   0.54065157   -36797.456   0.56635886   -36888.349   0.59277475   -36746.725    0.6191743   -36936.809   0.64421907   -36824.752   0.66851387   -37036.578   0.69211238   -37569.787   0.71548788   -38304.396   0.73846559   -39026.748   0.76078367   -39862.891   0.78266176    -41089.66   0.80431368   -42001.571   0.82520759   -43111.391   0.84573458   -44165.864   0.86602461   -45153.402   0.88525592   -46677.233     0.904478   -47280.928    0.9237225   -48087.944   0.94072964   -49848.867   0.95769588   -50030.521   0.97538931   -50994.459   0.98910887   -53199.382            1   -53560.481 
700    226.93151    11.000291 2.446449e-10    1.5257833    226.93151    17255.819    17233.694    2933.1967            0   -53582.606  0.010912334   -53213.133  0.024768328   -50971.665  0.042595944   -50047.294  0.059563466   -49937.252  0.076379876   -48184.577  0.095738147   -47271.088   0.11518119   -46728.619   0.13425534   -45272.519   0.15457019   -44329.676   0.17516684   -43505.641   0.19590734   -41989.143   0.21764435   -41111.051    0.2395453   -40262.874   0.26156748   -39303.014   0.28434438   -38567.796    0.3073672   -37679.602   0.33086481   -37055.233   0.35503448   -36763.086   0.37999345    -36899.21    0.4057073   -36674.523   0.43150765   -36448.391   0.45905654   -36578.804   0.48271908   -36326.787   0.50818716   -37322.747   0.54065098   -36800.859   0.56635936   -36891.832   0.59277576   -36750.087    0.6191759   -36940.174   0.64422156   -36828.428    0.6685171   -37039.419   0.69211562    -37572.45   0.71549109   -38306.862   0.73846868   -39029.061   0.76078668   -39864.963   0.78266469   -41091.438   0.80431643    -42003.16   0.82521017   -43112.754   0.84573696   -44167.123   0.86602678     -45154.4   0.88525797   -46678.011    0.9044798   -47281.639   0.92372381   -48088.424   0.94073101    -49849.18   0.95769692   -50030.875   0.97538947   -50994.495   0.98910887   -53199.398            1   -53560.481 
750    227.49263    11.000765 2.4464373e-10    1.5251987    227.49263    17253.869    17231.744    2933.3603            0   -53582.606  0.010912349   -53213.149  0.024768169     -50971.7  0.042594788   -50047.691  0.059561902   -49937.577  0.076378396    -48185.09  0.095736062   -47271.876   0.11517872   -46729.437   0.13425287   -45273.665   0.15456735   -44330.991   0.17516369   -43507.083   0.19590408   -41990.981   0.21764082   -41113.034   0.23954165   -40265.125    0.2615638   -39305.516   0.28434051   -38570.539   0.30736329   -37682.571    0.3308609   -37058.534   0.35503166   -36767.241   0.37999177   -36903.178   0.40570582   -36677.984   0.43150678   -36452.327   0.45905665   -36582.885   0.48271481   -36328.738   0.50818593   -37326.567    0.5406503   -36804.716   0.56635991   -36895.779   0.59277691   -36753.897   0.61917771   -36943.985   0.64422436   -36832.592   0.66852076   -37042.639   0.69211927   -37575.468   0.71549472   -38309.658   0.73847217   -39031.683   0.76079009    -39867.31     0.782668   -41093.452   0.80431955   -42004.962   0.82521309   -43114.299   0.84573965   -44168.551   0.86602923    -45155.53    0.8852603   -46678.892   0.90448185   -47282.444   0.92372529   -48088.968   0.94073256   -49849.535   0.95769809   -50031.277   0.97538966   -50994.536   0.98910887   -53199.417            1   -53560.481 
800    228.12709    11.001175 2.4464279e-10    1.5245457    228.12709     17251.72    17229.595    2933.5431            0   -53582.606  0.010912367   -53213.168  0.024767993   -50971.739  0.042593497   -50048.134  0.059560156    -49937.94  0.076376744   -48185.664  0.095733734   -47272.756   0.11517596   -46730.351    0.1342501   -45274.945   0.15456417   -44332.461   0.17516018   -43508.694   0.19590045   -41993.034   0.21763689   -41115.249   0.23953758    -40267.64    0.2615597   -39308.311   0.28433619   -38573.604   0.30735892   -37685.888   0.33085654   -37062.221    0.3550285   -36771.883   0.37998989   -36907.608   0.40570417    -36681.85   0.43150583   -36456.726   0.45905677    -36587.44   0.48270999   -36330.887   0.50818454   -37330.836   0.54064954   -36809.025   0.56636051   -36900.188   0.59277819   -36758.155   0.61917972   -36948.242   0.64422749   -36837.246   0.66852483   -37046.236   0.69212335   -37578.841   0.71549876   -38312.781   0.73847607   -39034.613    0.7607939   -39869.933    0.7826717   -41095.703   0.80432302   -42006.975   0.82521635   -43116.026   0.84574265   -44170.146   0.86603197   -45156.794    0.8852629   -46679.877   0.90448413   -47283.343   0.92372694   -48089.576   0.94073429   -49849.931   0.95769941   -50031.725   0.97538986   -50994.582   0.98910887   -53199.438            1   -53560.482 
850    228.83701    11.001484 2.4464136e-10    1.5238245    228.83701    17249.382    17227.258     2933.745            0   -53582.606  0.010912386   -53213.188  0.024767799   -50971.781  0.042592073   -50048.624   0.05955823   -49938.341  0.076374922   -48186.297  0.095731167   -47273.728   0.11517292   -46731.361   0.13424706    -45276.36   0.15456067   -44334.084   0.17515631   -43510.474   0.19589645   -41995.303   0.21763255   -41117.697   0.23953309   -40270.419   0.26155517     -39311.4   0.28433144   -38576.991    0.3073541   -37689.554   0.33085174   -37066.296   0.35502503   -36777.012   0.37998783     -36912.5   0.40570235    -36686.12   0.43150477   -36461.587    0.4590569   -36592.468   0.48270461   -36333.224   0.50818298   -37335.553   0.54064869   -36813.786   0.56636118    -36905.06   0.59277959   -36762.859   0.61918194   -36952.943   0.64423094   -36842.387   0.66852932   -37050.211   0.69212784   -37582.567   0.71550322   -38316.231   0.73848036    -39037.85   0.76079809   -39872.831   0.78267578   -41098.189   0.80432686   -42009.199   0.82521994   -43117.933   0.84574596   -44171.909   0.86603499    -45158.19   0.88526577   -46680.965   0.90448665   -47284.337   0.92372877   -48090.247   0.94073619   -49850.368   0.95770086    -50032.22   0.97539009   -50994.633   0.98910887   -53199.461            1   -53560.482 
900    229.62471    11.001727 2.4464078e-10    1.5230405    229.62471    17246.867    17224.743    2933.9659            0   -53582.606  0.010912409   -53213.211  0.024767588   -50971.828  0.042590515   -50049.161  0.059556123    -49938.78  0.076372931   -48186.991  0.095728359   -47274.793    0.1151696   -46732.466   0.13424373   -45277.909   0.15455684   -44335.862   0.17515207   -43512.423   0.19589207   -41997.787   0.21762782   -41120.377   0.23952819   -40273.461   0.26155022   -39314.781   0.28432624   -38580.698   0.30734884   -37693.568    0.3308465   -37070.757   0.35502124   -36782.628   0.37998559   -36917.852   0.40570037   -36690.796   0.43150363   -36466.912   0.45905705   -36597.966   0.48269865   -36335.739   0.50818127   -37340.716   0.54064774   -36818.998   0.56636189   -36910.393   0.59278112    -36768.01   0.61918435   -36958.087   0.64423469   -36848.017   0.66853422   -37054.563   0.69213274   -37586.647   0.71550809   -38320.009   0.73848505   -39041.394   0.76080267   -39876.004   0.78268024   -41100.912   0.80433105   -42011.634   0.82522387   -43120.021   0.84574958   -44173.838    0.8660383   -45159.718   0.88526891   -46682.155   0.90448941   -47285.425   0.92373076   -48090.982   0.94073828   -49850.847   0.95770244   -50032.762   0.97539034   -50994.688   0.98910886   -53199.487            1   -53560.482 
950    230.49247    11.002018 2.446392e-10    1.5221835    230.49247    17244.187    17222.063    2934.2058            0   -53582.606  0.010912434   -53213.235   0.02476736   -50971.879  0.042588826   -50049.744  0.059553837   -49939.256  0.076370771   -48187.745  0.095725314   -47275.949   0.11516599   -46733.666   0.13424011   -45279.592   0.15455269   -44337.793   0.17514748    -43514.54   0.19588732   -42000.486   0.21762268   -41123.289   0.23952287   -40276.767   0.26154486   -39318.455   0.28432061   -38584.726   0.30734315   -37697.929   0.33084082   -37075.604   0.35501714   -36788.729   0.37998316   -36923.662   0.40569822   -36695.874   0.43150239   -36472.698   0.45905722   -36603.932    0.4826921   -36338.419   0.50817939   -37346.326    0.5406467    -36824.66   0.56636266   -36916.187   0.59278278   -36773.607   0.61918696   -36963.673   0.64423876   -36854.133   0.66853953   -37059.291   0.69213805    -37591.08   0.71551337   -38324.113   0.73849013   -39045.245   0.76080764   -39879.451   0.78268507   -41103.869   0.80433559    -42014.28   0.82522813    -43122.29   0.84575351   -44175.935   0.86604188   -45161.379   0.88527231   -46683.449   0.90449239   -47286.607   0.92373292    -48091.78   0.94074054   -49851.367   0.95770416   -50033.351    0.9753906   -50994.748   0.98910886   -53199.514            1   -53560.483 
1000    231.44272    11.002367 2.4463802e-10     1.521259    231.44272    17241.355    17219.231    2934.4646            0   -53582.606  0.010912463   -53213.261  0.024767117   -50971.934  0.042587004   -50050.373  0.059551373   -49939.771  0.076368443   -48188.558  0.095722032   -47277.196    0.1151621   -46734.962   0.13423622   -45281.409   0.15454822   -44339.877   0.17514254   -43516.825   0.19588221     -42003.4   0.21761714   -41126.433   0.23951715   -40280.336   0.26153909   -39322.421   0.28431454   -38589.074   0.30733701   -37702.637   0.33083471   -37080.835   0.35501273   -36795.315   0.37998055   -36929.929    0.4056959   -36701.355   0.43150106   -36478.947   0.45905739   -36610.364   0.48268494   -36341.252   0.50817734   -37352.382   0.54064557   -36830.773   0.56636348   -36922.441   0.59278455   -36779.649   0.61918975     -36969.7   0.64424313   -36860.736   0.66854524   -37064.394   0.69214377   -37595.865   0.71551905   -38328.543   0.73849561   -39049.402   0.76081299   -39883.172   0.78269027   -41107.062   0.80434048   -42017.136   0.82523272   -43124.739   0.84575773   -44178.198   0.86604574   -45163.171   0.88527597   -46684.845   0.90449561   -47287.882   0.92373525   -48092.642   0.94074297   -49851.929   0.95770602   -50033.986   0.97539089   -50994.813   0.98910886   -53199.544            1   -53560.483 
1050    232.47804    11.002827 2.4463705e-10    1.5202673    232.47804    17238.384    17216.261    2934.7424            0   -53582.606  0.010912494   -53213.289  0.024766857   -50971.993  0.042585052   -50051.048  0.059548732   -49940.323   0.07636595   -48189.431  0.095718514   -47278.535   0.11515794   -46736.353   0.13423205   -45283.359   0.15454343   -44342.115   0.17513724   -43519.278   0.19587673   -42006.529   0.21761122   -41129.807   0.23951102   -40284.166   0.26153291   -39326.678   0.28430805   -38593.741   0.30733045   -37707.691   0.33082818   -37086.451   0.35500801   -36802.385   0.37997777    -36936.65   0.40569342   -36707.237   0.43149965   -36485.657   0.45905758   -36617.257   0.48267714   -36344.222   0.50817511   -37358.883   0.54064433   -36837.334   0.56636434   -36929.153   0.59278645   -36786.136   0.61919274   -36976.165    0.6442478   -36867.824   0.66855134   -37069.873   0.69214989   -37601.002   0.71552513   -38333.299   0.73850146   -39053.865   0.76081871   -39887.167   0.78269584   -41110.489   0.80434571   -42020.202   0.82523763   -43127.368   0.84576226   -44180.627   0.86604988   -45165.096    0.8852799   -46686.343   0.90449906   -47289.252   0.92373775   -48093.567   0.94074559   -49852.532     0.957708   -50034.668    0.9753912   -50994.883   0.98910885   -53199.576            1   -53560.483 
1100    233.60096    11.002927 2.4463657e-10    1.5192083    233.60096     17235.29    17213.167    2935.0389            0   -53582.606  0.010912529   -53213.319  0.024766582   -50972.056   0.04258297   -50051.769  0.059545916   -49940.913  0.076363292   -48190.363  0.095714764   -47279.965   0.11515349   -46737.838    0.1342276   -45285.442   0.15453832   -44344.505   0.17513159   -43521.898   0.19587089   -42009.871    0.2176049   -41133.413   0.23950448   -40288.259   0.26152633   -39331.225   0.28430113   -38598.727   0.30732346   -37713.091   0.33082122   -37092.451   0.35500298   -36809.938   0.37997481   -36943.823   0.40569078    -36713.52   0.43149814   -36492.828   0.45905778   -36624.611    0.4826687   -36347.317    0.5081727   -37365.828   0.54064299   -36844.343   0.56636524   -36936.323   0.59278847   -36793.066   0.61919591   -36983.068   0.64425276   -36875.397   0.66855784   -37075.726    0.6921564    -37606.49    0.7155316   -38338.379    0.7385077   -39058.633   0.76082481   -39891.436   0.78270178    -41114.15   0.80435129   -42023.478   0.82524287   -43130.176   0.84576709   -44183.222   0.86605428   -45167.152   0.88528408   -46687.944   0.90450274   -47290.714   0.92374041   -48094.555   0.94074837   -49853.175   0.95771012   -50035.397   0.97539152   -50994.957   0.98910884   -53199.609            1   -53560.484 
1150    234.81376    11.003062 2.446355e-10    1.5180826    234.81376    17232.088    17209.966    2935.3542            0   -53582.606  0.010912567    -53213.35  0.024766293   -50972.122   0.04258076   -50052.536  0.059542924    -49941.54   0.07636047   -48191.355  0.095710781   -47281.486   0.11514878   -46739.418   0.13422288   -45287.659   0.15453289   -44347.047   0.17512559   -43524.686    0.1958647   -42013.427    0.2175982   -41137.249   0.23949755   -40292.613   0.26151934   -39336.063    0.2842938   -38604.031   0.30731605   -37718.836   0.33081384   -37098.833   0.35499766   -36817.974   0.37997167   -36951.446   0.40568798   -36720.203   0.43149655    -36500.46   0.45905799    -36632.42   0.48265958   -36350.519   0.50817012   -37373.216   0.54064155   -36851.798   0.56636619    -36943.95   0.59279061    -36800.44   0.61919926   -36990.405   0.64425802   -36883.453   0.66856473   -37081.952    0.6921633   -37612.329   0.71553846   -38343.783   0.73851432   -39063.706   0.76083128   -39895.976   0.78270808   -41118.044   0.80435721   -42026.963   0.82524843   -43133.163   0.84577221   -44185.983   0.86605896    -45169.34   0.88528853   -46689.646   0.90450665    -47292.27   0.92374323   -48095.605   0.94075133    -49853.86   0.95771238   -50036.172   0.97539186   -50995.036   0.98910883   -53199.645            1   -53560.484 
